# Static host mappings for Traefik backend services
# Forces DNS resolution to use reverse_proxy network IPs
#
# Context: Podman's aardvark-dns returns container IPs in undefined order.
# When DNS returns monitoring network IPs first, Traefik routes traffic
# through the wrong network, violating network segmentation.
#
# Solution: Override DNS resolution with static /etc/hosts entries pointing
# to reverse_proxy network IPs, ensuring correct routing.
#
# Convention: Static IPs use .69+ to avoid collision with dynamic IPAM range
#
# See: docs/98-journals/2026-02-02-ROOT-CAUSE-CONFIRMED-dns-resolution-order.md
# Date: 2026-03-01
# Status: PRODUCTION
#
# NOTE (2026-07-17): this file is bind-mounted single-file into traefik
# (/etc/hosts, inode-pinned) — edits do NOT propagate to the running container.
# After ANY change here: systemctl --user restart traefik.service
#
# Tier note (ADR-045/GH#274): 10.89.11.x entries are restricted-egress members.
# Traefik reaches them cross-bridge (both bridges isolate=false); the entry here
# is what makes the router dial the right bridge. Inbound exposure is governed
# solely by routers.yml — the tier only limits the member's OUTBOUND traffic.

# Loopback — this file fully REPLACES podman's generated /etc/hosts, so the
# standard localhost entries must be carried here. Without them the container
# healthcheck's `wget http://localhost:8080/ping` (every 10s) falls through to
# DNS and leaks A/AAAA localhost queries to the LAN resolver (~16k/day observed
# in Pi-hole, 2026-07-17).
127.0.0.1  localhost
::1        localhost

# Core Services
10.89.2.76  home-assistant
10.89.11.78 authelia
10.89.2.77  grafana

# Media & Collaboration
10.89.2.81  jellyfin
10.89.2.82  nextcloud
10.89.11.74 audiobookshelf
10.89.2.75  navidrome

# Photos & Events
10.89.2.80  immich-server
10.89.2.84  gathio

# Development
10.89.11.89 forgejo

# Monitoring & Logging
10.89.2.83  loki

# Security
10.89.2.71  vaultwarden

# Downloads & Torrents
10.89.2.85  qbittorrent

# Note: These IPs are statically assigned in each service's quadlet file
# using the Network=systemd-reverse_proxy:ip=X.X.X.X syntax, ensuring they
# remain stable across container restarts.
